21
Time=0 Lattice="0.5 0.00000000 0.00000000 0.00000000 0.5 0.00000000 0.00000000 0.00000000 0.000000000000000001" Properties=id:I:1:pos:R:2:radius:I:1:mass:I:1:color:R:3:disp:R:2
1 0.33828466584094347 0.32512029680679966 0.05 100.0 0.0 0.5000000000000001 1 -0.0 0.0
2 0.19016423970651292 0.49162710519293185 0.005 1.0 0.23647367762077642 0.9249163181301485 1 -0.05270526447584472 0.0849832636260297
3 0.2533139759121271 0.041598795558767415 0.005 1.0 0.41516829230967556 0.0072489661397519 1 -0.01696634153806489 -0.09855020677204962
4 0.16385946042517885 0.3233071398773497 0.005 1.0 0.9794651726090843 0.6418208315267578 1 0.09589303452181686 0.02836416630535157
5 0.08033207917730131 0.09597538836544597 0.005 1.0 0.5241213465572825 5.821782912993623E-4 1 0.004824269311456502 -0.09988356434174013
6 0.4133108315192425 0.11436902006875752 0.005 1.0 0.8217386893804167 0.11726743572597365 1 0.06434773787608336 -0.07654651285480528
7 0.4124688723982433 0.4066438746291134 0.005 1.0 0.19873617977486907 0.10095099220351395 1 -0.024723356041529972 -0.03274814310725786
8 0.43878850791082163 0.09455409333279516 0.005 1.0 0.673997275444109 0.9687482780107324 1 0.034799455088821804 0.09374965560214649
9 0.44716107460998855 0.17929509665448098 0.005 1.0 0.5554242075773743 0.0030813374259122117 1 0.011084841515474862 -0.09938373251481757
10 0.3036147280463278 0.45297073627794565 0.005 1.0 0.9459455549107336 0.7261251026652237 1 0.08918911098214671 0.04522502053304473
11 0.007038713429383397 0.2003508045116481 0.005 1.0 0.20231459240798078 0.9017255258342111 1 -0.059537081518403846 0.08034510516684222
12 0.11402978089018909 0.22983991364192494 0.005 1.0 0.9783327362014194 0.3544053796390011 1 0.09566654724028387 -0.02911892407219979
13 0.44992848327902635 0.26043997848643685 0.005 1.0 0.160096979818673 0.8666959733506934 1 -0.06798060403626541 0.07333919467013868
14 0.24072636751568172 0.4181417758984709 0.005 1.0 0.09181899619559852 0.2112297312166102 1 -0.0816362007608803 -0.05775405375667796
15 0.177539732796696 0.26173025064425803 0.005 1.0 0.24627060710328108 0.06916198498709236 1 -0.05074587857934379 -0.08616760300258153
16 0.4091004432100435 0.37987667563003047 0.005 1.0 0.7050667096586686 0.956012768011782 1 0.04101334193173372 0.0912025536023564
17 0.40872904597881377 0.2227776924829309 0.005 1.0 9.350484691145189E-4 0.46943573731504484 1 -0.0998129903061771 -0.006112852536991034
18 0.17522541854603438 0.1040626011857607 0.005 1.0 0.14509734434431087 0.14780104343064931 1 -0.07098053113113782 -0.07043979131387014
19 0.43927745441502053 0.4490376815022233 0.005 1.0 0.681834165029013 0.9657642498391237 1 0.0492180645723083 0.12607099947579728
20 0.3593151754463666 0.055008686099014124 0.005 1.0 0.6713186729961554 0.9697338738933317 1 0.03426373459923109 0.09394677477866632
21 0.020958674195027345 0.2527215897020064 0.005 1.0 0.7882985371004909 0.09148567527476237 1 0.057659707420098176 -0.08170286494504753
21
Time=1 Lattice="0.5 0.00000000 0.00000000 0.00000000 0.5 0.00000000 0.00000000 0.00000000 0.000000000000000001" Properties=id:I:1:pos:R:2:radius:I:1:mass:I:1:color:R:3:disp:R:2
1 0.33828466584094347 0.32512029680679966 0.05 100.0 0.0 0.5000000000000001 1 -0.0 0.0
2 0.1766804611161773 0.4766313188560987 0.005 1.0 0.23647367762077626 0.07508368186985165 1 -0.052705264475844754 -0.08498326362602968
3 0.2489734153426582 0.01638633943391246 0.005 1.0 0.41516829230967556 0.0072489661397519 1 -0.01696634153806489 -0.09855020677204962
4 0.18839212255497773 0.3305636472142231 0.005 1.0 0.9794651726090843 0.6418208315267578 1 0.09589303452181686 0.02836416630535157
5 0.08156628945786337 0.07042181454712618 0.005 1.0 0.5241213465572825 5.821782912993623E-4 1 0.004824269311456502 -0.09988356434174013
6 0.4297731462223158 0.0947858486064549 0.005 1.0 0.8217386893804167 0.11726743572597365 1 0.06434773787608336 -0.07654651285480528
7 0.40333766143990235 0.4010613552432309 0.005 1.0 0.0012965761756703609 0.4640153495794246 1 -0.05370565337730662 -0.0038752073277759044
8 0.44769137847125784 0.1185384070750952 0.005 1.0 0.673997275444109 0.9687482780107324 1 0.034799455088821804 0.09374965560214649
9 0.44999694973916327 0.15386939662170526 0.005 1.0 0.5554242075773743 0.0030813374259122117 1 0.011084841515474862 -0.09938373251481757
10 0.32643230115049654 0.46454081698383864 0.005 1.0 0.9459455549107336 0.7261251026652237 1 0.08918911098214671 0.04522502053304473
11 0.018192873644367908 0.2209057835950648 0.005 1.0 0.7976854075920192 0.9017255258342111 1 0.059537081518403846 0.08034510516684222
12 0.13850449995892775 0.22239031389353012 0.005 1.0 0.9783327362014194 0.3544053796390011 1 0.09566654724028387 -0.02911892407219979
13 0.4325367592761541 0.2792026101278906 0.005 1.0 0.160096979818673 0.8666959733506934 1 -0.06798060403626541 0.07333919467013868
14 0.21984108277300882 0.4033663472711031 0.005 1.0 0.09181899619559852 0.2112297312166102 1 -0.0816362007608803 -0.05775405375667796
15 0.1645572309927344 0.2396856808635819 0.005 1.0 0.24627060710328108 0.06916198498709236 1 -0.05074587857934379 -0.08616760300258153
16 0.4223991802242279 0.40041379844278185 0.005 1.0 0.8734097550959492 0.8325133904058349 1 0.06999563926751037 0.06232961782287447
17 0.3831935273714719 0.221213819291441 0.005 1.0 9.350484691145189E-4 0.46943573731504484 1 -0.0998129903061771 -0.006112852536991034
18 0.15706621233551765 0.08604173440003438 0.005 1.0 0.14509734434431087 0.14780104343064931 1 -0.07098053113113782 -0.07043979131387014
19 0.4518690900312691 0.4812908816426581 0.005 1.0 0.681834165029013 0.9657642498391237 1 0.0492180645723083 0.12607099947579728
20 0.3680809906947807 0.07904342955376387 0.005 1.0 0.6713186729961554 0.9697338738933317 1 0.03426373459923109 0.09394677477866632
21 0.035709965857598495 0.2318192500197909 0.005 1.0 0.7882985371004909 0.09148567527476237 1 0.057659707420098176 -0.08170286494504753
21
Time=2 Lattice="0.5 0.00000000 0.00000000 0.00000000 0.5 0.00000000 0.00000000 0.00000000 0.000000000000000001" Properties=id:I:1:pos:R:2:radius:I:1:mass:I:1:color:R:3:disp:R:2
1 0.33828466584094347 0.32512029680679966 0.05 100.0 0.0 0.5000000000000001 1 -0.0 0.0
2 0.16319668252584166 0.4548897429051294 0.005 1.0 0.23647367762077626 0.07508368186985165 1 -0.052705264475844754 -0.08498326362602968
3 0.24463285477318933 0.018826116690942488 0.005 1.0 0.41516829230967556 0.9927510338602481 1 -0.01696634153806489 0.09855020677204962
4 0.21292478468477657 0.3378201545510965 0.005 1.0 0.9794651726090843 0.6418208315267578 1 0.09589303452181686 0.02836416630535157
5 0.08280049973842546 0.04486824072880639 0.005 1.0 0.5241213465572825 5.821782912993623E-4 1 0.004824269311456502 -0.09988356434174013
6 0.44623546092538907 0.0752026771441523 0.005 1.0 0.8217386893804167 0.11726743572597365 1 0.06434773787608336 -0.07654651285480528
7 0.38959794973575557 0.4000699469253137 0.005 1.0 0.0012965761756703609 0.4640153495794246 1 -0.05370565337730662 -0.0038752073277759044
8 0.4585134545544062 0.11887179325328934 0.005 1.0 0.7313491841801952 0.05674211233283383 1 0.05021402017503657 -0.09620851092661237
9 0.45091361934562585 0.15209462415303537 0.005 1.0 0.4761257958150218 0.9994296971291695 1 -0.004329723570739926 0.09057443401394129
10 0.34924987425466536 0.4761108976897316 0.005 1.0 0.9459455549107336 0.7261251026652237 1 0.08918911098214671 0.04522502053304473
11 0.03342446071811921 0.24146076267848143 0.005 1.0 0.7976854075920192 0.9017255258342111 1 0.059537081518403846 0.08034510516684222
12 0.15718722210802585 0.20356287199622342 0.005 1.0 0.6514530736816413 0.023489804440258222 1 0.042469435040035926 -0.13361972988926116
13 0.4151450352732818 0.2979652417693444 0.005 1.0 0.160096979818673 0.8666959733506934 1 -0.06798060403626541 0.07333919467013868
14 0.19895579803033595 0.3885909186437353 0.005 1.0 0.09181899619559852 0.2112297312166102 1 -0.0816362007608803 -0.05775405375667796
15 0.15736672610841335 0.22901895323181767 0.005 1.0 0.5662626396325542 0.9955898128381235 1 0.0024512336209041572 0.018333202814479855
16 0.44030641798421805 0.416359810187568 0.005 1.0 0.8734097550959492 0.8325133904058349 1 0.06999563926751037 0.06232961782287447
17 0.35765800876413006 0.21964994609995112 0.005 1.0 9.350484691145189E-4 0.46943573731504484 1 -0.0998129903061771 -0.006112852536991034
18 0.13890700612500093 0.06802086761430808 0.005 1.0 0.14509734434431087 0.14780104343064931 1 -0.07098053113113782 -0.07043979131387014
19 0.46446072564751767 0.47645591821690714 0.005 1.0 0.681834165029013 0.034235750160876266 1 0.0492180645723083 -0.12607099947579728
20 0.3768468059431947 0.10307817300851363 0.005 1.0 0.6713186729961554 0.9697338738933317 1 0.03426373459923109 0.09394677477866632
21 0.05046125752016964 0.21091691033757534 0.005 1.0 0.7882985371004909 0.09148567527476237 1 0.057659707420098176 -0.08170286494504753
21
Time=3 Lattice="0.5 0.00000000 0.00000000 0.00000000 0.5 0.00000000 0.00000000 0.00000000 0.000000000000000001" Properties=id:I:1:pos:R:2:radius:I:1:mass:I:1:color:R:3:disp:R:2
1 0.33828466584094347 0.32512029680679966 0.05 100.0 0.0 0.5000000000000001 1 -0.0 0.0
2 0.14971290393550601 0.43314816695416003 0.005 1.0 0.23647367762077626 0.07508368186985165 1 -0.052705264475844754 -0.08498326362602968
3 0.24029229420372045 0.044038572815797435 0.005 1.0 0.41516829230967556 0.9927510338602481 1 -0.01696634153806489 0.09855020677204962
4 0.23745744681457542 0.34507666188796987 0.005 1.0 0.9794651726090843 0.6418208315267578 1 0.09589303452181686 0.02836416630535157
5 0.08403471001898753 0.019314666910486594 0.005 1.0 0.5241213465572825 5.821782912993623E-4 1 0.004824269311456502 -0.09988356434174013
6 0.4626977756284623 0.05561950568184969 0.005 1.0 0.8217386893804167 0.11726743572597365 1 0.06434773787608336 -0.07654651285480528
7 0.37585823803160884 0.39907853860739656 0.005 1.0 0.0012965761756703609 0.4640153495794246 1 -0.05370565337730662 -0.0038752073277759044
8 0.47135988909760346 0.09425842165290833 0.005 1.0 0.7313491841801952 0.05674211233283383 1 0.05021402017503657 -0.09620851092661237
9 0.4498059304920395 0.17526660946294068 0.005 1.0 0.4761257958150218 0.9994296971291695 1 -0.004329723570739926 0.09057443401394129
10 0.3720674473588341 0.4876809783956246 0.005 1.0 0.9459455549107336 0.7261251026652237 1 0.08918911098214671 0.04522502053304473
11 0.04865604779187052 0.26201574176189807 0.005 1.0 0.7976854075920192 0.9017255258342111 1 0.059537081518403846 0.08034510516684222
12 0.16805233140273276 0.16937845282965264 0.005 1.0 0.6514530736816413 0.023489804440258222 1 0.042469435040035926 -0.13361972988926116
13 0.3977533112704095 0.31672787341079817 0.005 1.0 0.160096979818673 0.8666959733506934 1 -0.06798060403626541 0.07333919467013868
14 0.17807051328766307 0.3738154900163675 0.005 1.0 0.09181899619559852 0.2112297312166102 1 -0.0816362007608803 -0.05775405375667796
15 0.15799383407848352 0.2337092028693175 0.005 1.0 0.5662626396325542 0.9955898128381235 1 0.0024512336209041572 0.018333202814479855
16 0.45821365574420814 0.4323058219323541 0.005 1.0 0.8734097550959492 0.8325133904058349 1 0.06999563926751037 0.06232961782287447
17 0.3321224901567882 0.21808607290846121 0.005 1.0 9.350484691145189E-4 0.46943573731504484 1 -0.0998129903061771 -0.006112852536991034
18 0.12074779991448417 0.05000000082858176 0.005 1.0 0.14509734434431087 0.14780104343064931 1 -0.07098053113113782 -0.07043979131387014
19 0.4770523612637662 0.4442027180764723 0.005 1.0 0.681834165029013 0.034235750160876266 1 0.0492180645723083 -0.12607099947579728
20 0.3856126211916087 0.1271129164632634 0.005 1.0 0.6713186729961554 0.9697338738933317 1 0.03426373459923109 0.09394677477866632
21 0.06521254918274079 0.1900145706553598 0.005 1.0 0.7882985371004909 0.09148567527476237 1 0.057659707420098176 -0.08170286494504753
21
Time=4 Lattice="0.5 0.00000000 0.00000000 0.00000000 0.5 0.00000000 0.00000000 0.00000000 0.000000000000000001" Properties=id:I:1:pos:R:2:radius:I:1:mass:I:1:color:R:3:disp:R:2
1 0.3380147547538339 0.325137282667787 0.05 100.0 9.87156609156159E-4 0.5314035369183977 1 -0.00143187257627269 9.010963125893315E-5
2 0.1362291253451704 0.4114065910031906 0.005 1.0 0.23647367762077626 0.07508368186985165 1 -0.052705264475844754 -0.08498326362602968
3 0.23595173363425154 0.06925102894065238 0.005 1.0 0.41516829230967556 0.9927510338602481 1 -0.01696634153806489 0.09855020677204962
4 0.2619901089443743 0.35233316922484326 0.005 1.0 0.9794651726090843 0.6418208315267578 1 0.09589303452181686 0.02836416630535157
5 0.0852689202995496 0.016238906907833202 0.005 1.0 0.5241213465572825 0.9994178217087006 1 0.004824269311456502 0.09988356434174013
6 0.47916009033153556 0.03603633421954707 0.005 1.0 0.8217386893804167 0.11726743572597365 1 0.06434773787608336 -0.07654651285480528
7 0.3621185263274621 0.3980871302894794 0.005 1.0 0.0012965761756703609 0.4640153495794246 1 -0.05370565337730662 -0.0038752073277759044
8 0.48420632364080074 0.06964505005252732 0.005 1.0 0.7313491841801952 0.05674211233283383 1 0.05021402017503657 -0.09620851092661237
9 0.4486982416384531 0.19843859477284598 0.005 1.0 0.4761257958150218 0.9994296971291695 1 -0.004329723570739926 0.09057443401394129
10 0.3948850204630029 0.4907489408984825 0.005 1.0 0.9459455549107336 0.2738748973347763 1 0.08918911098214671 -0.04522502053304473
11 0.06388763486562182 0.28257072084531476 0.005 1.0 0.7976854075920192 0.9017255258342111 1 0.059537081518403846 0.08034510516684222
12 0.17891744069743964 0.13519403366308186 0.005 1.0 0.6514530736816413 0.023489804440258222 1 0.042469435040035926 -0.13361972988926116
13 0.40735269597849255 0.3337919189535188 0.005 1.0 0.8799641520702011 0.8250034509687136 1 0.07520665359100356 0.06432823154424538
14 0.15718522854499017 0.3590400613889997 0.005 1.0 0.09181899619559852 0.2112297312166102 1 -0.0816362007608803 -0.05775405375667796
15 0.1586209420485537 0.23839945250681735 0.005 1.0 0.5662626396325542 0.9955898128381235 1 0.0024512336209041572 0.018333202814479855
16 0.47612089350419823 0.4482518336771402 0.005 1.0 0.8734097550959492 0.8325133904058349 1 0.06999563926751037 0.06232961782287447
17 0.30658697154944625 0.21652219971697131 0.005 1.0 9.350484691145189E-4 0.46943573731504484 1 -0.0998129903061771 -0.006112852536991034
18 0.10258859370396742 0.03197913404285545 0.005 1.0 0.14509734434431087 0.14780104343064931 1 -0.07098053113113782 -0.07043979131387014
19 0.48964399688001475 0.4119495179360375 0.005 1.0 0.681834165029013 0.034235750160876266 1 0.0492180645723083 -0.12607099947579728
20 0.3943784364400227 0.15114765991801313 0.005 1.0 0.6713186729961554 0.9697338738933317 1 0.03426373459923109 0.09394677477866632
21 0.07996384084531194 0.16911223097314423 0.005 1.0 0.7882985371004909 0.09148567527476237 1 0.057659707420098176 -0.08170286494504753
21
Time=5 Lattice="0.5 0.00000000 0.00000000 0.00000000 0.5 0.00000000 0.00000000 0.00000000 0.000000000000000001" Properties=id:I:1:pos:R:2:radius:I:1:mass:I:1:color:R:3:disp:R:2
1 0.33764843360963614 0.3251603357409257 0.05 100.0 9.87156609156159E-4 0.5314035369183977 1 -0.00143187257627269 9.010963125893315E-5
2 0.12274534675483478 0.3896650150522212 0.005 1.0 0.23647367762077626 0.07508368186985165 1 -0.052705264475844754 -0.08498326362602968
3 0.23161117306478263 0.09446348506550734 0.005 1.0 0.41516829230967556 0.9927510338602481 1 -0.01696634153806489 0.09855020677204962
4 0.2865227710741731 0.35958967656171664 0.005 1.0 0.9794651726090843 0.6418208315267578 1 0.09589303452181686 0.02836416630535157
5 0.07661802574398867 0.04255930253339161 0.005 1.0 0.259674055724478 0.9384557452104816 1 -0.05739355413334013 0.10471001632250676
6 0.4943775949653912 0.016453162757244462 0.005 1.0 0.17826131061958334 0.11726743572597359 1 -0.06434773787608335 -0.0765465128548053
7 0.3483788146233154 0.39709572197156223 0.005 1.0 0.0012965761756703609 0.4640153495794246 1 -0.05370565337730662 -0.0038752073277759044
8 0.492947241816002 0.04503167845214631 0.005 1.0 0.26865081581980466 0.05674211233283388 1 -0.05021402017503658 -0.09620851092661237
9 0.44759055278486676 0.22161058008275128 0.005 1.0 0.4761257958150218 0.9994296971291695 1 -0.004329723570739926 0.09057443401394129
10 0.41770259356717165 0.4791788601925895 0.005 1.0 0.9459455549107336 0.2738748973347763 1 0.08918911098214671 -0.04522502053304473
11 0.07911922193937312 0.30312569992873145 0.005 1.0 0.7976854075920192 0.9017255258342111 1 0.059537081518403846 0.08034510516684222
12 0.18978254999214655 0.10100961449651108 0.005 1.0 0.6514530736816413 0.023489804440258222 1 0.042469435040035926 -0.13361972988926116
13 0.42659308639539134 0.35024924328111 0.005 1.0 0.8799641520702011 0.8250034509687136 1 0.07520665359100356 0.06432823154424538
14 0.1362999438023173 0.3442646327616319 0.005 1.0 0.09181899619559852 0.2112297312166102 1 -0.0816362007608803 -0.05775405375667796
15 0.15924805001862385 0.2430897021443172 0.005 1.0 0.5662626396325542 0.9955898128381235 1 0.0024512336209041572 0.018333202814479855
16 0.4940281312641884 0.46419784542192627 0.005 1.0 0.8734097550959492 0.8325133904058349 1 0.06999563926751037 0.06232961782287447
17 0.2810514529421043 0.21495832652548139 0.005 1.0 9.350484691145189E-4 0.46943573731504484 1 -0.0998129903061771 -0.006112852536991034
18 0.09431449232957367 0.013191445449890525 0.005 1.0 0.4421791349652324 0.003354505138090269 1 -0.008762707686341173 -0.07526624329463676
19 0.48776436750373675 0.37969631779560264 0.005 1.0 0.318165834970987 0.034235750160876266 1 -0.04921806457230832 -0.12607099947579728
20 0.40314425168843676 0.1751824033727629 0.005 1.0 0.6713186729961554 0.9697338738933317 1 0.03426373459923109 0.09394677477866632
21 0.09471513250788309 0.14820989129092868 0.005 1.0 0.7882985371004909 0.09148567527476237 1 0.057659707420098176 -0.08170286494504753
21
Time=6 Lattice="0.5 0.00000000 0.00000000 0.00000000 0.5 0.00000000 0.00000000 0.00000000 0.000000000000000001" Properties=id:I:1:pos:R:2:radius:I:1:mass:I:1:color:R:3:disp:R:2
1 0.3373885252440913 0.32508356835244634 0.05 100.0 0.12619194665538447 0.16793443530725882 1 -6.860877339365558E-4 -6.094735219317802E-4
2 0.10926156816449917 0.36792343910125175 0.005 1.0 0.23647367762077626 0.07508368186985165 1 -0.052705264475844754 -0.08498326362602968
3 0.22727061249531372 0.11967594119036228 0.005 1.0 0.41516829230967556 0.9927510338602481 1 -0.01696634153806489 0.09855020677204962
4 0.300414155338693 0.3768282300603906 0.005 1.0 0.6059305322811007 0.9886498975039724 1 0.021314550288203414 0.09832248162442292
5 0.06193482504017517 0.06934764503246378 0.005 1.0 0.259674055724478 0.9384557452104816 1 -0.05739355413334013 0.10471001632250676
6 0.477435504673196 0.010754707611221239 0.005 1.0 0.12665231245949166 0.1674169213442227 1 -0.0973198656250782 -0.08669382884671875
7 0.3346391029191687 0.3961043136536451 0.005 1.0 0.0012965761756703609 0.4640153495794246 1 -0.05370565337730662 -0.0038752073277759044
8 0.48058058286192673 0.022793607945602215 0.005 1.0 0.37544467953067007 0.9842375162487749 1 -0.017241892426041745 0.0670318307749117
9 0.4464828639312804 0.24478256539265658 0.005 1.0 0.4761257958150218 0.9994296971291695 1 -0.004329723570739926 0.09057443401394129
10 0.4405201666713405 0.46760877948669655 0.005 1.0 0.9459455549107336 0.2738748973347763 1 0.08918911098214671 -0.04522502053304473
11 0.09435080901312443 0.3236806790121481 0.005 1.0 0.7976854075920192 0.9017255258342111 1 0.059537081518403846 0.08034510516684222
12 0.20064765928685346 0.06682519532994032 0.005 1.0 0.6514530736816413 0.023489804440258222 1 0.042469435040035926 -0.13361972988926116
13 0.44583347681229013 0.3667065676087013 0.005 1.0 0.8799641520702011 0.8250034509687136 1 0.07520665359100356 0.06432823154424538
14 0.11541465905964444 0.3294892041342641 0.005 1.0 0.09181899619559852 0.2112297312166102 1 -0.0816362007608803 -0.05775405375667796
15 0.15987515798869406 0.24777995178181703 0.005 1.0 0.5662626396325542 0.9955898128381235 1 0.0024512336209041572 0.018333202814479855
16 0.47806463097582147 0.4801438571667124 0.005 1.0 0.12659024490405069 0.8325133904058348 1 -0.06999563926751039 0.06232961782287445
17 0.25551593433476244 0.21339445333399149 0.005 1.0 9.350484691145189E-4 0.46943573731504484 1 -0.0998129903061771 -0.006112852536991034
18 0.0920726971034325 0.016064190016588164 0.005 1.0 0.4421791349652324 0.9966454948619097 1 -0.008762707686341173 0.07526624329463676
19 0.47517273188748815 0.3474431176551679 0.005 1.0 0.318165834970987 0.034235750160876266 1 -0.04921806457230832 -0.12607099947579728
20 0.4119100669368508 0.19921714682751265 0.005 1.0 0.6713186729961554 0.9697338738933317 1 0.03426373459923109 0.09394677477866632
21 0.10946642417045423 0.12730755160871313 0.005 1.0 0.7882985371004909 0.09148567527476237 1 0.057659707420098176 -0.08170286494504753
21
Time=7 Lattice="0.5 0.00000000 0.00000000 0.00000000 0.5 0.00000000 0.00000000 0.00000000 0.000000000000000001" Properties=id:I:1:pos:R:2:radius:I:1:mass:I:1:color:R:3:disp:R:2
1 0.3372130009356574 0.3249276445351934 0.05 100.0 0.12619194665538447 0.16793443530725882 1 -6.860877339365558E-4 -6.094735219317802E-4
2 0.09577778957416354 0.3461818631502824 0.005 1.0 0.23647367762077626 0.07508368186985165 1 -0.052705264475844754 -0.08498326362602968
3 0.22293005192584484 0.14488839731521722 0.005 1.0 0.41516829230967556 0.9927510338602481 1 -0.01696634153806489 0.09855020677204962
4 0.30586713389210535 0.4019824264364219 0.005 1.0 0.6059305322811007 0.9886498975039724 1 0.021314550288203414 0.09832248162442292
5 0.04725162433636167 0.09613598753153596 0.005 1.0 0.259674055724478 0.9384557452104816 1 -0.05739355413334013 0.10471001632250676
6 0.45253781117748876 0.021424488431962485 0.005 1.0 0.12665231245949166 0.8325830786557773 1 -0.0973198656250782 0.08669382884671875
7 0.320899391215022 0.395112905335728 0.005 1.0 0.0012965761756703609 0.4640153495794246 1 -0.05370565337730662 -0.0038752073277759044
8 0.4761695271113635 0.03994260385070755 0.005 1.0 0.37544467953067007 0.9842375162487749 1 -0.017241892426041745 0.0670318307749117
9 0.44537517507769403 0.2679545507025619 0.005 1.0 0.4761257958150218 0.9994296971291695 1 -0.004329723570739926 0.09057443401394129
10 0.4633377397755093 0.45603869878080355 0.005 1.0 0.9459455549107336 0.2738748973347763 1 0.08918911098214671 -0.04522502053304473
11 0.10958239608687573 0.3442356580955647 0.005 1.0 0.7976854075920192 0.9017255258342111 1 0.059537081518403846 0.08034510516684222
12 0.21151276858156037 0.032640776163369536 0.005 1.0 0.6514530736816413 0.023489804440258222 1 0.042469435040035926 -0.13361972988926116
13 0.465073867229189 0.3831638919362926 0.005 1.0 0.8799641520702011 0.8250034509687136 1 0.07520665359100356 0.06432823154424538
14 0.09452937431697157 0.3147137755068963 0.005 1.0 0.09181899619559852 0.2112297312166102 1 -0.0816362007608803 -0.05775405375667796
15 0.16050226595876424 0.25247020141931686 0.005 1.0 0.5662626396325542 0.9955898128381235 1 0.0024512336209041572 0.018333202814479855
16 0.4601573932158313 0.49391013108850157 0.005 1.0 0.12659024490405069 0.16748660959416511 1 -0.06999563926751039 -0.06232961782287445
17 0.22998041572742056 0.21183058014250158 0.005 1.0 9.350484691145189E-4 0.46943573731504484 1 -0.0998129903061771 -0.006112852536991034
18 0.08983090187729131 0.03531982548306685 0.005 1.0 0.4421791349652324 0.9966454948619097 1 -0.008762707686341173 0.07526624329463676
19 0.4625810962712396 0.3151899175147331 0.005 1.0 0.318165834970987 0.034235750160876266 1 -0.04921806457230832 -0.12607099947579728
20 0.4206758821852648 0.2232518902822624 0.005 1.0 0.6713186729961554 0.9697338738933317 1 0.03426373459923109 0.09394677477866632
21 0.12421771583302538 0.10640521192649759 0.005 1.0 0.7882985371004909 0.09148567527476237 1 0.057659707420098176 -0.08170286494504753
21
Time=8 Lattice="0.5 0.00000000 0.00000000 0.00000000 0.5 0.00000000 0.00000000 0.00000000 0.000000000000000001" Properties=id:I:1:pos:R:2:radius:I:1:mass:I:1:color:R:3:disp:R:2
1 0.3370374766272236 0.32477172071794047 0.05 100.0 0.12619194665538447 0.16793443530725882 1 -6.860877339365558E-4 -6.094735219317802E-4
2 0.08229401098382791 0.324440287199313 0.005 1.0 0.23647367762077626 0.07508368186985165 1 -0.052705264475844754 -0.08498326362602968
3 0.21858949135637595 0.17010085344007217 0.005 1.0 0.41516829230967556 0.9927510338602481 1 -0.01696634153806489 0.09855020677204962
4 0.3113201124455177 0.4271366228124531 0.005 1.0 0.6059305322811007 0.9886498975039724 1 0.021314550288203414 0.09832248162442292
5 0.03256842363254816 0.12292433003060813 0.005 1.0 0.259674055724478 0.9384557452104816 1 -0.05739355413334013 0.10471001632250676
6 0.4276401176817815 0.043603684475146204 0.005 1.0 0.12665231245949166 0.8325830786557773 1 -0.0973198656250782 0.08669382884671875
7 0.3071596795108753 0.39412149701781085 0.005 1.0 0.0012965761756703609 0.4640153495794246 1 -0.05370565337730662 -0.0038752073277759044
8 0.4717584713608003 0.057091599755812884 0.005 1.0 0.37544467953067007 0.9842375162487749 1 -0.017241892426041745 0.0670318307749117
9 0.43623968069715147 0.28616772619952097 0.005 1.0 0.0015854628128460502 0.5397862931235762 1 -0.1336844648572476 0.010671457006242323
10 0.4861553128796781 0.4444686180749106 0.005 1.0 0.9459455549107336 0.2738748973347763 1 0.08918911098214671 -0.04522502053304473
11 0.12481398316062703 0.36479063717898136 0.005 1.0 0.7976854075920192 0.9017255258342111 1 0.059537081518403846 0.08034510516684222
12 0.22237787787626728 0.01154364300320124 0.005 1.0 0.6514530736816413 0.9765101955597417 1 0.042469435040035926 0.13361972988926116
13 0.48431425764608776 0.39962121626388375 0.005 1.0 0.8799641520702011 0.8250034509687136 1 0.07520665359100356 0.06432823154424538
14 0.0736440895742987 0.2999383468795285 0.005 1.0 0.09181899619559852 0.2112297312166102 1 -0.0816362007608803 -0.05775405375667796
15 0.1611293739288344 0.25716045105681673 0.005 1.0 0.5662626396325542 0.9955898128381235 1 0.0024512336209041572 0.018333202814479855
16 0.4422501554558412 0.4779641193437155 0.005 1.0 0.12659024490405069 0.16748660959416511 1 -0.06999563926751039 -0.06232961782287445
17 0.20444489712007868 0.2102667069510117 0.005 1.0 9.350484691145189E-4 0.46943573731504484 1 -0.0998129903061771 -0.006112852536991034
18 0.08758910665115013 0.05457546094954554 0.005 1.0 0.4421791349652324 0.9966454948619097 1 -0.008762707686341173 0.07526624329463676
19 0.45801726618194727 0.28789552718724454 0.005 1.0 0.9332440633584693 0.25040115872736374 1 0.08013667671419936 -0.0461680224680983
20 0.4294416974336788 0.24728663373701215 0.005 1.0 0.6713186729961554 0.9697338738933317 1 0.03426373459923109 0.09394677477866632
21 0.1389690074955965 0.08550287224428203 0.005 1.0 0.7882985371004909 0.09148567527476237 1 0.057659707420098176 -0.08170286494504753
21
Time=9 Lattice="0.5 0.00000000 0.00000000 0.00000000 0.5 0.00000000 0.00000000 0.00000000 0.000000000000000001" Properties=id:I:1:pos:R:2:radius:I:1:mass:I:1:color:R:3:disp:R:2
1 0.3368619523187898 0.3246157969006875 0.05 100.0 0.12619194665538447 0.16793443530725882 1 -6.860877339365558E-4 -6.094735219317802E-4
2 0.06881023239349228 0.3026987112483436 0.005 1.0 0.23647367762077626 0.07508368186985165 1 -0.052705264475844754 -0.08498326362602968
3 0.21424893078690707 0.19531330956492712 0.005 1.0 0.41516829230967556 0.9927510338602481 1 -0.01696634153806489 0.09855020677204962
4 0.3167730909989301 0.45229081918848435 0.005 1.0 0.6059305322811007 0.9886498975039724 1 0.021314550288203414 0.09832248162442292
5 0.017885222928734658 0.14971267252968032 0.005 1.0 0.259674055724478 0.9384557452104816 1 -0.05739355413334013 0.10471001632250676
6 0.4027424241860743 0.06578288051832994 0.005 1.0 0.12665231245949166 0.8325830786557773 1 -0.0973198656250782 0.08669382884671875
7 0.2934199678067285 0.39313008869989363 0.005 1.0 0.0012965761756703609 0.4640153495794246 1 -0.05370565337730662 -0.0038752073277759044
8 0.46734741561023707 0.07424059566091822 0.005 1.0 0.37544467953067007 0.9842375162487749 1 -0.017241892426041745 0.0670318307749117
9 0.40203870014939685 0.28889784367335325 0.005 1.0 0.0015854628128460502 0.5397862931235762 1 -0.1336844648572476 0.010671457006242323
10 0.48102711401615306 0.4328985373690177 0.005 1.0 0.05405444508926638 0.27387489733477643 1 -0.08918911098214673 -0.04522502053304471
11 0.14004557023437833 0.385345616262398 0.005 1.0 0.7976854075920192 0.9017255258342111 1 0.059537081518403846 0.08034510516684222
12 0.2332429871709742 0.045728062169772016 0.005 1.0 0.6514530736816413 0.9765101955597417 1 0.042469435040035926 0.13361972988926116
13 0.4864453519370134 0.416078540591475 0.005 1.0 0.12003584792979888 0.8250034509687136 1 -0.07520665359100356 0.06432823154424538
14 0.05275880483162583 0.28516291825216067 0.005 1.0 0.09181899619559852 0.2112297312166102 1 -0.0816362007608803 -0.05775405375667796
15 0.16175648189890454 0.26185070069431654 0.005 1.0 0.5662626396325542 0.9955898128381235 1 0.0024512336209041572 0.018333202814479855
16 0.4243429176958511 0.4620181075989295 0.005 1.0 0.12659024490405069 0.16748660959416511 1 -0.06999563926751039 -0.06232961782287445
17 0.1789093785127368 0.2087028337595218 0.005 1.0 9.350484691145189E-4 0.46943573731504484 1 -0.0998129903061771 -0.006112852536991034
18 0.08534731142500897 0.07383109641602424 0.005 1.0 0.4421791349652324 0.9966454948619097 1 -0.008762707686341173 0.07526624329463676
19 0.478518922259867 0.2760841948828827 0.005 1.0 0.9332440633584693 0.25040115872736374 1 0.08013667671419936 -0.0461680224680983
20 0.43820751268209285 0.2713213771917619 0.005 1.0 0.6713186729961554 0.9697338738933317 1 0.03426373459923109 0.09394677477866632
21 0.15372029915816768 0.06460053256206649 0.005 1.0 0.7882985371004909 0.09148567527476237 1 0.057659707420098176 -0.08170286494504753
21
Time=10 Lattice="0.5 0.00000000 0.00000000 0.00000000 0.5 0.00000000 0.00000000 0.00000000 0.000000000000000001" Properties=id:I:1:pos:R:2:radius:I:1:mass:I:1:color:R:3:disp:R:2